+ 0 1 0 tcp 40 ------- 0 1.0 3.0 0 0
- 0 1 0 tcp 40 ------- 0 1.0 3.0 0 0
r 0.01032 1 0 tcp 40 ------- 0 1.0 3.0 0 0
+ 0.01032 0 3 tcp 40 ------- 0 1.0 3.0 0 0
- 0.01032 0 3 tcp 40 ------- 0 1.0 3.0 0 0
r 0.02064 0 3 tcp 40 ------- 0 1.0 3.0 0 0
+ 0.02064 3 0 ack 40 ------- 0 3.0 1.0 0 1
- 0.02064 3 0 ack 40 ------- 0 3.0 1.0 0 1
r 0.03096 3 0 ack 40 ------- 0 3.0 1.0 0 1
+ 0.03096 0 1 ack 40 ------- 0 3.0 1.0 0 1
- 0.03096 0 1 ack 40 ------- 0 3.0 1.0 0 1
r 0.04128 0 1 ack 40 ------- 0 3.0 1.0 0 1
+ 0.04128 1 0 tcp 1040 ------- 0 1.0 3.0 1 2
- 0.04128 1 0 tcp 1040 ------- 0 1.0 3.0 1 2
+ 0.04128 1 0 tcp 1040 ------- 0 1.0 3.0 2 3
- 0.0496 1 0 tcp 1040 ------- 0 1.0 3.0 2 3
r 0.0596 1 0 tcp 1040 ------- 0 1.0 3.0 1 2
+ 0.0596 0 3 tcp 1040 ------- 0 1.0 3.0 1 2
- 0.0596 0 3 tcp 1040 ------- 0 1.0 3.0 1 2
r 0.06792 1 0 tcp 1040 ------- 0 1.0 3.0 2 3
+ 0.06792 0 3 tcp 1040 ------- 0 1.0 3.0 2 3
- 0.06792 0 3 tcp 1040 ------- 0 1.0 3.0 2 3
r 0.07792 0 3 tcp 1040 ------- 0 1.0 3.0 1 2
+ 0.07792 3 0 ack 40 ------- 0 3.0 1.0 1 4
- 0.07792 3 0 ack 40 ------- 0 3.0 1.0 1 4
r 0.08624 0 3 tcp 1040 ------- 0 1.0 3.0 2 3
+ 0.08624 3 0 ack 40 ------- 0 3.0 1.0 2 5
- 0.08624 3 0 ack 40 ------- 0 3.0 1.0 2 5
r 0.08824 3 0 ack 40 ------- 0 3.0 1.0 1 4
+ 0.08824 0 1 ack 40 ------- 0 3.0 1.0 1 4
- 0.08824 0 1 ack 40 ------- 0 3.0 1.0 1 4
r 0.09656 3 0 ack 40 ------- 0 3.0 1.0 2 5
+ 0.09656 0 1 ack 40 ------- 0 3.0 1.0 2 5
- 0.09656 0 1 ack 40 ------- 0 3.0 1.0 2 5
r 0.09856 0 1 ack 40 ------- 0 3.0 1.0 1 4
+ 0.09856 1 0 tcp 1040 ------- 0 1.0 3.0 3 6
- 0.09856 1 0 tcp 1040 ------- 0 1.0 3.0 3 6
+ 0.09856 1 0 tcp 1040 ------- 0 1.0 3.0 4 7
- 0.10688 1 0 tcp 1040 ------- 0 1.0 3.0 4 7
r 0.10688 0 1 ack 40 ------- 0 3.0 1.0 2 5
+ 0.10688 1 0 tcp 1040 ------- 0 1.0 3.0 5 8
+ 0.10688 1 0 tcp 1040 ------- 0 1.0 3.0 6 9
- 0.1152 1 0 tcp 1040 ------- 0 1.0 3.0 5 8
r 0.11688 1 0 tcp 1040 ------- 0 1.0 3.0 3 6
+ 0.11688 0 3 tcp 1040 ------- 0 1.0 3.0 3 6
- 0.11688 0 3 tcp 1040 ------- 0 1.0 3.0 3 6
- 0.12352 1 0 tcp 1040 ------- 0 1.0 3.0 6 9
r 0.1252 1 0 tcp 1040 ------- 0 1.0 3.0 4 7
+ 0.1252 0 3 tcp 1040 ------- 0 1.0 3.0 4 7
- 0.1252 0 3 tcp 1040 ------- 0 1.0 3.0 4 7
r 0.13352 1 0 tcp 1040 ------- 0 1.0 3.0 5 8
+ 0.13352 0 3 tcp 1040 ------- 0 1.0 3.0 5 8
- 0.13352 0 3 tcp 1040 ------- 0 1.0 3.0 5 8
r 0.1352 0 3 tcp 1040 ------- 0 1.0 3.0 3 6
+ 0.1352 3 0 ack 40 ------- 0 3.0 1.0 3 10
- 0.1352 3 0 ack 40 ------- 0 3.0 1.0 3 10
r 0.14184 1 0 tcp 1040 ------- 0 1.0 3.0 6 9
+ 0.14184 0 3 tcp 1040 ------- 0 1.0 3.0 6 9
- 0.14184 0 3 tcp 1040 ------- 0 1.0 3.0 6 9
r 0.14352 0 3 tcp 1040 ------- 0 1.0 3.0 4 7
+ 0.14352 3 0 ack 40 ------- 0 3.0 1.0 4 11
- 0.14352 3 0 ack 40 ------- 0 3.0 1.0 4 11
r 0.14552 3 0 ack 40 ------- 0 3.0 1.0 3 10
+ 0.14552 0 1 ack 40 ------- 0 3.0 1.0 3 10
- 0.14552 0 1 ack 40 ------- 0 3.0 1.0 3 10
r 0.15184 0 3 tcp 1040 ------- 0 1.0 3.0 5 8
+ 0.15184 3 0 ack 40 ------- 0 3.0 1.0 5 12
- 0.15184 3 0 ack 40 ------- 0 3.0 1.0 5 12
r 0.15384 3 0 ack 40 ------- 0 3.0 1.0 4 11
+ 0.15384 0 1 ack 40 ------- 0 3.0 1.0 4 11
- 0.15384 0 1 ack 40 ------- 0 3.0 1.0 4 11
r 0.15584 0 1 ack 40 ------- 0 3.0 1.0 3 10
+ 0.15584 1 0 tcp 1040 ------- 0 1.0 3.0 7 13
- 0.15584 1 0 tcp 1040 ------- 0 1.0 3.0 7 13
+ 0.15584 1 0 tcp 1040 ------- 0 1.0 3.0 8 14
r 0.16016 0 3 tcp 1040 ------- 0 1.0 3.0 6 9
+ 0.16016 3 0 ack 40 ------- 0 3.0 1.0 6 15
- 0.16016 3 0 ack 40 ------- 0 3.0 1.0 6 15
r 0.16216 3 0 ack 40 ------- 0 3.0 1.0 5 12
+ 0.16216 0 1 ack 40 ------- 0 3.0 1.0 5 12
- 0.16216 0 1 ack 40 ------- 0 3.0 1.0 5 12
- 0.16416 1 0 tcp 1040 ------- 0 1.0 3.0 8 14
r 0.16416 0 1 ack 40 ------- 0 3.0 1.0 4 11
+ 0.16416 1 0 tcp 1040 ------- 0 1.0 3.0 9 16
+ 0.16416 1 0 tcp 1040 ------- 0 1.0 3.0 10 17
r 0.17048 3 0 ack 40 ------- 0 3.0 1.0 6 15
+ 0.17048 0 1 ack 40 ------- 0 3.0 1.0 6 15
- 0.17048 0 1 ack 40 ------- 0 3.0 1.0 6 15
- 0.17248 1 0 tcp 1040 ------- 0 1.0 3.0 9 16
r 0.17248 0 1 ack 40 ------- 0 3.0 1.0 5 12
+ 0.17248 1 0 tcp 1040 ------- 0 1.0 3.0 11 18
+ 0.17248 1 0 tcp 1040 ------- 0 1.0 3.0 12 19
r 0.17416 1 0 tcp 1040 ------- 0 1.0 3.0 7 13
+ 0.17416 0 3 tcp 1040 ------- 0 1.0 3.0 7 13
- 0.17416 0 3 tcp 1040 ------- 0 1.0 3.0 7 13
- 0.1808 1 0 tcp 1040 ------- 0 1.0 3.0 10 17
r 0.1808 0 1 ack 40 ------- 0 3.0 1.0 6 15
+ 0.1808 1 0 tcp 1040 ------- 0 1.0 3.0 13 20
+ 0.1808 1 0 tcp 1040 ------- 0 1.0 3.0 14 21
r 0.18248 1 0 tcp 1040 ------- 0 1.0 3.0 8 14
+ 0.18248 0 3 tcp 1040 ------- 0 1.0 3.0 8 14
- 0.18248 0 3 tcp 1040 ------- 0 1.0 3.0 8 14
- 0.18912 1 0 tcp 1040 ------- 0 1.0 3.0 11 18
r 0.1908 1 0 tcp 1040 ------- 0 1.0 3.0 9 16
+ 0.1908 0 3 tcp 1040 ------- 0 1.0 3.0 9 16
- 0.1908 0 3 tcp 1040 ------- 0 1.0 3.0 9 16
r 0.19248 0 3 tcp 1040 ------- 0 1.0 3.0 7 13
+ 0.19248 3 0 ack 40 ------- 0 3.0 1.0 7 22
- 0.19248 3 0 ack 40 ------- 0 3.0 1.0 7 22
- 0.19744 1 0 tcp 1040 ------- 0 1.0 3.0 12 19
r 0.19912 1 0 tcp 1040 ------- 0 1.0 3.0 10 17
+ 0.19912 0 3 tcp 1040 ------- 0 1.0 3.0 10 17
- 0.19912 0 3 tcp 1040 ------- 0 1.0 3.0 10 17
r 0.2008 0 3 tcp 1040 ------- 0 1.0 3.0 8 14
+ 0.2008 3 0 ack 40 ------- 0 3.0 1.0 8 23
- 0.2008 3 0 ack 40 ------- 0 3.0 1.0 8 23
r 0.2028 3 0 ack 40 ------- 0 3.0 1.0 7 22
+ 0.2028 0 1 ack 40 ------- 0 3.0 1.0 7 22
- 0.2028 0 1 ack 40 ------- 0 3.0 1.0 7 22
- 0.20576 1 0 tcp 1040 ------- 0 1.0 3.0 13 20
r 0.20744 1 0 tcp 1040 ------- 0 1.0 3.0 11 18
+ 0.20744 0 3 tcp 1040 ------- 0 1.0 3.0 11 18
- 0.20744 0 3 tcp 1040 ------- 0 1.0 3.0 11 18
r 0.20912 0 3 tcp 1040 ------- 0 1.0 3.0 9 16
+ 0.20912 3 0 ack 40 ------- 0 3.0 1.0 9 24
- 0.20912 3 0 ack 40 ------- 0 3.0 1.0 9 24
r 0.21112 3 0 ack 40 ------- 0 3.0 1.0 8 23
+ 0.21112 0 1 ack 40 ------- 0 3.0 1.0 8 23
- 0.21112 0 1 ack 40 ------- 0 3.0 1.0 8 23
r 0.21312 0 1 ack 40 ------- 0 3.0 1.0 7 22
+ 0.21312 1 0 tcp 1040 ------- 0 1.0 3.0 15 25
+ 0.21312 1 0 tcp 1040 ------- 0 1.0 3.0 16 26
- 0.21408 1 0 tcp 1040 ------- 0 1.0 3.0 14 21
r 0.21576 1 0 tcp 1040 ------- 0 1.0 3.0 12 19
+ 0.21576 0 3 tcp 1040 ------- 0 1.0 3.0 12 19
- 0.21576 0 3 tcp 1040 ------- 0 1.0 3.0 12 19
r 0.21744 0 3 tcp 1040 ------- 0 1.0 3.0 10 17
+ 0.21744 3 0 ack 40 ------- 0 3.0 1.0 10 27
- 0.21744 3 0 ack 40 ------- 0 3.0 1.0 10 27
r 0.21944 3 0 ack 40 ------- 0 3.0 1.0 9 24
+ 0.21944 0 1 ack 40 ------- 0 3.0 1.0 9 24
- 0.21944 0 1 ack 40 ------- 0 3.0 1.0 9 24
r 0.22144 0 1 ack 40 ------- 0 3.0 1.0 8 23
+ 0.22144 1 0 tcp 1040 ------- 0 1.0 3.0 17 28
+ 0.22144 1 0 tcp 1040 ------- 0 1.0 3.0 18 29
- 0.2224 1 0 tcp 1040 ------- 0 1.0 3.0 15 25
r 0.22408 1 0 tcp 1040 ------- 0 1.0 3.0 13 20
+ 0.22408 0 3 tcp 1040 ------- 0 1.0 3.0 13 20
- 0.22408 0 3 tcp 1040 ------- 0 1.0 3.0 13 20
r 0.22576 0 3 tcp 1040 ------- 0 1.0 3.0 11 18
+ 0.22576 3 0 ack 40 ------- 0 3.0 1.0 11 30
- 0.22576 3 0 ack 40 ------- 0 3.0 1.0 11 30
r 0.22776 3 0 ack 40 ------- 0 3.0 1.0 10 27
+ 0.22776 0 1 ack 40 ------- 0 3.0 1.0 10 27
- 0.22776 0 1 ack 40 ------- 0 3.0 1.0 10 27
r 0.22976 0 1 ack 40 ------- 0 3.0 1.0 9 24
+ 0.22976 1 0 tcp 1040 ------- 0 1.0 3.0 19 31
+ 0.22976 1 0 tcp 1040 ------- 0 1.0 3.0 20 32
- 0.23072 1 0 tcp 1040 ------- 0 1.0 3.0 16 26
r 0.2324 1 0 tcp 1040 ------- 0 1.0 3.0 14 21
+ 0.2324 0 3 tcp 1040 ------- 0 1.0 3.0 14 21
- 0.2324 0 3 tcp 1040 ------- 0 1.0 3.0 14 21
r 0.23408 0 3 tcp 1040 ------- 0 1.0 3.0 12 19
+ 0.23408 3 0 ack 40 ------- 0 3.0 1.0 12 33
- 0.23408 3 0 ack 40 ------- 0 3.0 1.0 12 33
r 0.23608 3 0 ack 40 ------- 0 3.0 1.0 11 30
+ 0.23608 0 1 ack 40 ------- 0 3.0 1.0 11 30
- 0.23608 0 1 ack 40 ------- 0 3.0 1.0 11 30
r 0.23808 0 1 ack 40 ------- 0 3.0 1.0 10 27
+ 0.23808 1 0 tcp 1040 ------- 0 1.0 3.0 21 34
+ 0.23808 1 0 tcp 1040 ------- 0 1.0 3.0 22 35
- 0.23904 1 0 tcp 1040 ------- 0 1.0 3.0 17 28
r 0.24072 1 0 tcp 1040 ------- 0 1.0 3.0 15 25
+ 0.24072 0 3 tcp 1040 ------- 0 1.0 3.0 15 25
- 0.24072 0 3 tcp 1040 ------- 0 1.0 3.0 15 25
r 0.2424 0 3 tcp 1040 ------- 0 1.0 3.0 13 20
+ 0.2424 3 0 ack 40 ------- 0 3.0 1.0 13 36
- 0.2424 3 0 ack 40 ------- 0 3.0 1.0 13 36
r 0.2444 3 0 ack 40 ------- 0 3.0 1.0 12 33
+ 0.2444 0 1 ack 40 ------- 0 3.0 1.0 12 33
- 0.2444 0 1 ack 40 ------- 0 3.0 1.0 12 33
r 0.2464 0 1 ack 40 ------- 0 3.0 1.0 11 30
+ 0.2464 1 0 tcp 1040 ------- 0 1.0 3.0 23 37
+ 0.2464 1 0 tcp 1040 ------- 0 1.0 3.0 24 38
- 0.24736 1 0 tcp 1040 ------- 0 1.0 3.0 18 29
r 0.24904 1 0 tcp 1040 ------- 0 1.0 3.0 16 26
+ 0.24904 0 3 tcp 1040 ------- 0 1.0 3.0 16 26
- 0.24904 0 3 tcp 1040 ------- 0 1.0 3.0 16 26
r 0.25072 0 3 tcp 1040 ------- 0 1.0 3.0 14 21
+ 0.25072 3 0 ack 40 ------- 0 3.0 1.0 14 39
- 0.25072 3 0 ack 40 ------- 0 3.0 1.0 14 39
r 0.25272 3 0 ack 40 ------- 0 3.0 1.0 13 36
+ 0.25272 0 1 ack 40 ------- 0 3.0 1.0 13 36
- 0.25272 0 1 ack 40 ------- 0 3.0 1.0 13 36
r 0.25472 0 1 ack 40 ------- 0 3.0 1.0 12 33
+ 0.25472 1 0 tcp 1040 ------- 0 1.0 3.0 25 40
+ 0.25472 1 0 tcp 1040 ------- 0 1.0 3.0 26 41
- 0.25568 1 0 tcp 1040 ------- 0 1.0 3.0 19 31
r 0.25736 1 0 tcp 1040 ------- 0 1.0 3.0 17 28
+ 0.25736 0 3 tcp 1040 ------- 0 1.0 3.0 17 28
- 0.25736 0 3 tcp 1040 ------- 0 1.0 3.0 17 28
r 0.25904 0 3 tcp 1040 ------- 0 1.0 3.0 15 25
+ 0.25904 3 0 ack 40 ------- 0 3.0 1.0 15 42
- 0.25904 3 0 ack 40 ------- 0 3.0 1.0 15 42
r 0.26104 3 0 ack 40 ------- 0 3.0 1.0 14 39
+ 0.26104 0 1 ack 40 ------- 0 3.0 1.0 14 39
- 0.26104 0 1 ack 40 ------- 0 3.0 1.0 14 39
r 0.26304 0 1 ack 40 ------- 0 3.0 1.0 13 36
+ 0.26304 1 0 tcp 1040 ------- 0 1.0 3.0 27 43
+ 0.26304 1 0 tcp 1040 ------- 0 1.0 3.0 28 44
- 0.264 1 0 tcp 1040 ------- 0 1.0 3.0 20 32
r 0.26568 1 0 tcp 1040 ------- 0 1.0 3.0 18 29
+ 0.26568 0 3 tcp 1040 ------- 0 1.0 3.0 18 29
- 0.26568 0 3 tcp 1040 ------- 0 1.0 3.0 18 29
r 0.26736 0 3 tcp 1040 ------- 0 1.0 3.0 16 26
+ 0.26736 3 0 ack 40 ------- 0 3.0 1.0 16 45
- 0.26736 3 0 ack 40 ------- 0 3.0 1.0 16 45
r 0.26936 3 0 ack 40 ------- 0 3.0 1.0 15 42
+ 0.26936 0 1 ack 40 ------- 0 3.0 1.0 15 42
- 0.26936 0 1 ack 40 ------- 0 3.0 1.0 15 42
r 0.27136 0 1 ack 40 ------- 0 3.0 1.0 14 39
+ 0.27136 1 0 tcp 1040 ------- 0 1.0 3.0 29 46
+ 0.27136 1 0 tcp 1040 ------- 0 1.0 3.0 30 47
- 0.27232 1 0 tcp 1040 ------- 0 1.0 3.0 21 34
r 0.274 1 0 tcp 1040 ------- 0 1.0 3.0 19 31
+ 0.274 0 3 tcp 1040 ------- 0 1.0 3.0 19 31
- 0.274 0 3 tcp 1040 ------- 0 1.0 3.0 19 31
r 0.27568 0 3 tcp 1040 ------- 0 1.0 3.0 17 28
+ 0.27568 3 0 ack 40 ------- 0 3.0 1.0 17 48
- 0.27568 3 0 ack 40 ------- 0 3.0 1.0 17 48
r 0.27768 3 0 ack 40 ------- 0 3.0 1.0 16 45
+ 0.27768 0 1 ack 40 ------- 0 3.0 1.0 16 45
- 0.27768 0 1 ack 40 ------- 0 3.0 1.0 16 45
r 0.27968 0 1 ack 40 ------- 0 3.0 1.0 15 42
+ 0.27968 1 0 tcp 1040 ------- 0 1.0 3.0 31 49
+ 0.27968 1 0 tcp 1040 ------- 0 1.0 3.0 32 50
- 0.28064 1 0 tcp 1040 ------- 0 1.0 3.0 22 35
r 0.28232 1 0 tcp 1040 ------- 0 1.0 3.0 20 32
+ 0.28232 0 3 tcp 1040 ------- 0 1.0 3.0 20 32
- 0.28232 0 3 tcp 1040 ------- 0 1.0 3.0 20 32
r 0.284 0 3 tcp 1040 ------- 0 1.0 3.0 18 29
+ 0.284 3 0 ack 40 ------- 0 3.0 1.0 18 51
- 0.284 3 0 ack 40 ------- 0 3.0 1.0 18 51
r 0.286 3 0 ack 40 ------- 0 3.0 1.0 17 48
+ 0.286 0 1 ack 40 ------- 0 3.0 1.0 17 48
- 0.286 0 1 ack 40 ------- 0 3.0 1.0 17 48
r 0.288 0 1 ack 40 ------- 0 3.0 1.0 16 45
+ 0.288 1 0 tcp 1040 ------- 0 1.0 3.0 33 52
+ 0.288 1 0 tcp 1040 ------- 0 1.0 3.0 34 53
- 0.28896 1 0 tcp 1040 ------- 0 1.0 3.0 23 37
r 0.29064 1 0 tcp 1040 ------- 0 1.0 3.0 21 34
+ 0.29064 0 3 tcp 1040 ------- 0 1.0 3.0 21 34
- 0.29064 0 3 tcp 1040 ------- 0 1.0 3.0 21 34
r 0.29232 0 3 tcp 1040 ------- 0 1.0 3.0 19 31
+ 0.29232 3 0 ack 40 ------- 0 3.0 1.0 19 54
- 0.29232 3 0 ack 40 ------- 0 3.0 1.0 19 54
r 0.29432 3 0 ack 40 ------- 0 3.0 1.0 18 51
+ 0.29432 0 1 ack 40 ------- 0 3.0 1.0 18 51
- 0.29432 0 1 ack 40 ------- 0 3.0 1.0 18 51
r 0.29632 0 1 ack 40 ------- 0 3.0 1.0 17 48
+ 0.29632 1 0 tcp 1040 ------- 0 1.0 3.0 35 55
+ 0.29632 1 0 tcp 1040 ------- 0 1.0 3.0 36 56
- 0.29728 1 0 tcp 1040 ------- 0 1.0 3.0 24 38
r 0.29896 1 0 tcp 1040 ------- 0 1.0 3.0 22 35
+ 0.29896 0 3 tcp 1040 ------- 0 1.0 3.0 22 35
- 0.29896 0 3 tcp 1040 ------- 0 1.0 3.0 22 35
r 0.30064 0 3 tcp 1040 ------- 0 1.0 3.0 20 32
+ 0.30064 3 0 ack 40 ------- 0 3.0 1.0 20 57
- 0.30064 3 0 ack 40 ------- 0 3.0 1.0 20 57
r 0.30264 3 0 ack 40 ------- 0 3.0 1.0 19 54
+ 0.30264 0 1 ack 40 ------- 0 3.0 1.0 19 54
- 0.30264 0 1 ack 40 ------- 0 3.0 1.0 19 54
r 0.30464 0 1 ack 40 ------- 0 3.0 1.0 18 51
+ 0.30464 1 0 tcp 1040 ------- 0 1.0 3.0 37 58
+ 0.30464 1 0 tcp 1040 ------- 0 1.0 3.0 38 59
- 0.3056 1 0 tcp 1040 ------- 0 1.0 3.0 25 40
r 0.30728 1 0 tcp 1040 ------- 0 1.0 3.0 23 37
+ 0.30728 0 3 tcp 1040 ------- 0 1.0 3.0 23 37
- 0.30728 0 3 tcp 1040 ------- 0 1.0 3.0 23 37
r 0.30896 0 3 tcp 1040 ------- 0 1.0 3.0 21 34
+ 0.30896 3 0 ack 40 ------- 0 3.0 1.0 21 60
- 0.30896 3 0 ack 40 ------- 0 3.0 1.0 21 60
r 0.31096 3 0 ack 40 ------- 0 3.0 1.0 20 57
+ 0.31096 0 1 ack 40 ------- 0 3.0 1.0 20 57
- 0.31096 0 1 ack 40 ------- 0 3.0 1.0 20 57
r 0.31296 0 1 ack 40 ------- 0 3.0 1.0 19 54
+ 0.31296 1 0 tcp 1040 ------- 0 1.0 3.0 39 61
- 0.31392 1 0 tcp 1040 ------- 0 1.0 3.0 26 41
r 0.3156 1 0 tcp 1040 ------- 0 1.0 3.0 24 38
+ 0.3156 0 3 tcp 1040 ------- 0 1.0 3.0 24 38
- 0.3156 0 3 tcp 1040 ------- 0 1.0 3.0 24 38
r 0.31728 0 3 tcp 1040 ------- 0 1.0 3.0 22 35
+ 0.31728 3 0 ack 40 ------- 0 3.0 1.0 22 62
- 0.31728 3 0 ack 40 ------- 0 3.0 1.0 22 62
r 0.31928 3 0 ack 40 ------- 0 3.0 1.0 21 60
+ 0.31928 0 1 ack 40 ------- 0 3.0 1.0 21 60
- 0.31928 0 1 ack 40 ------- 0 3.0 1.0 21 60
r 0.32128 0 1 ack 40 ------- 0 3.0 1.0 20 57
+ 0.32128 1 0 tcp 1040 ------- 0 1.0 3.0 40 63
- 0.32224 1 0 tcp 1040 ------- 0 1.0 3.0 27 43
r 0.32392 1 0 tcp 1040 ------- 0 1.0 3.0 25 40
+ 0.32392 0 3 tcp 1040 ------- 0 1.0 3.0 25 40
- 0.32392 0 3 tcp 1040 ------- 0 1.0 3.0 25 40
r 0.3256 0 3 tcp 1040 ------- 0 1.0 3.0 23 37
+ 0.3256 3 0 ack 40 ------- 0 3.0 1.0 23 64
- 0.3256 3 0 ack 40 ------- 0 3.0 1.0 23 64
r 0.3276 3 0 ack 40 ------- 0 3.0 1.0 22 62
+ 0.3276 0 1 ack 40 ------- 0 3.0 1.0 22 62
- 0.3276 0 1 ack 40 ------- 0 3.0 1.0 22 62
r 0.3296 0 1 ack 40 ------- 0 3.0 1.0 21 60
+ 0.3296 1 0 tcp 1040 ------- 0 1.0 3.0 41 65
- 0.33056 1 0 tcp 1040 ------- 0 1.0 3.0 28 44
r 0.33224 1 0 tcp 1040 ------- 0 1.0 3.0 26 41
+ 0.33224 0 3 tcp 1040 ------- 0 1.0 3.0 26 41
- 0.33224 0 3 tcp 1040 ------- 0 1.0 3.0 26 41
r 0.33392 0 3 tcp 1040 ------- 0 1.0 3.0 24 38
+ 0.33392 3 0 ack 40 ------- 0 3.0 1.0 24 66
- 0.33392 3 0 ack 40 ------- 0 3.0 1.0 24 66
r 0.33592 3 0 ack 40 ------- 0 3.0 1.0 23 64
+ 0.33592 0 1 ack 40 ------- 0 3.0 1.0 23 64
- 0.33592 0 1 ack 40 ------- 0 3.0 1.0 23 64
r 0.33792 0 1 ack 40 ------- 0 3.0 1.0 22 62
+ 0.33792 1 0 tcp 1040 ------- 0 1.0 3.0 42 67
- 0.33888 1 0 tcp 1040 ------- 0 1.0 3.0 29 46
r 0.34056 1 0 tcp 1040 ------- 0 1.0 3.0 27 43
+ 0.34056 0 3 tcp 1040 ------- 0 1.0 3.0 27 43
- 0.34056 0 3 tcp 1040 ------- 0 1.0 3.0 27 43
r 0.34224 0 3 tcp 1040 ------- 0 1.0 3.0 25 40
+ 0.34224 3 0 ack 40 ------- 0 3.0 1.0 25 68
- 0.34224 3 0 ack 40 ------- 0 3.0 1.0 25 68
r 0.34424 3 0 ack 40 ------- 0 3.0 1.0 24 66
+ 0.34424 0 1 ack 40 ------- 0 3.0 1.0 24 66
- 0.34424 0 1 ack 40 ------- 0 3.0 1.0 24 66
r 0.34624 0 1 ack 40 ------- 0 3.0 1.0 23 64
+ 0.34624 1 0 tcp 1040 ------- 0 1.0 3.0 43 69
- 0.3472 1 0 tcp 1040 ------- 0 1.0 3.0 30 47
r 0.34888 1 0 tcp 1040 ------- 0 1.0 3.0 28 44
+ 0.34888 0 3 tcp 1040 ------- 0 1.0 3.0 28 44
- 0.34888 0 3 tcp 1040 ------- 0 1.0 3.0 28 44
r 0.35056 0 3 tcp 1040 ------- 0 1.0 3.0 26 41
+ 0.35056 3 0 ack 40 ------- 0 3.0 1.0 26 70
- 0.35056 3 0 ack 40 ------- 0 3.0 1.0 26 70
r 0.35256 3 0 ack 40 ------- 0 3.0 1.0 25 68
+ 0.35256 0 1 ack 40 ------- 0 3.0 1.0 25 68
- 0.35256 0 1 ack 40 ------- 0 3.0 1.0 25 68
r 0.35456 0 1 ack 40 ------- 0 3.0 1.0 24 66
+ 0.35456 1 0 tcp 1040 ------- 0 1.0 3.0 44 71
- 0.35552 1 0 tcp 1040 ------- 0 1.0 3.0 31 49
r 0.3572 1 0 tcp 1040 ------- 0 1.0 3.0 29 46
+ 0.3572 0 3 tcp 1040 ------- 0 1.0 3.0 29 46
- 0.3572 0 3 tcp 1040 ------- 0 1.0 3.0 29 46
r 0.35888 0 3 tcp 1040 ------- 0 1.0 3.0 27 43
+ 0.35888 3 0 ack 40 ------- 0 3.0 1.0 27 72
- 0.35888 3 0 ack 40 ------- 0 3.0 1.0 27 72
r 0.36088 3 0 ack 40 ------- 0 3.0 1.0 26 70
+ 0.36088 0 1 ack 40 ------- 0 3.0 1.0 26 70
- 0.36088 0 1 ack 40 ------- 0 3.0 1.0 26 70
r 0.36288 0 1 ack 40 ------- 0 3.0 1.0 25 68
+ 0.36288 1 0 tcp 1040 ------- 0 1.0 3.0 45 73
- 0.36384 1 0 tcp 1040 ------- 0 1.0 3.0 32 50
r 0.36552 1 0 tcp 1040 ------- 0 1.0 3.0 30 47
+ 0.36552 0 3 tcp 1040 ------- 0 1.0 3.0 30 47
- 0.36552 0 3 tcp 1040 ------- 0 1.0 3.0 30 47
r 0.3672 0 3 tcp 1040 ------- 0 1.0 3.0 28 44
+ 0.3672 3 0 ack 40 ------- 0 3.0 1.0 28 74
- 0.3672 3 0 ack 40 ------- 0 3.0 1.0 28 74
r 0.3692 3 0 ack 40 ------- 0 3.0 1.0 27 72
+ 0.3692 0 1 ack 40 ------- 0 3.0 1.0 27 72
- 0.3692 0 1 ack 40 ------- 0 3.0 1.0 27 72
r 0.3712 0 1 ack 40 ------- 0 3.0 1.0 26 70
+ 0.3712 1 0 tcp 1040 ------- 0 1.0 3.0 46 75
- 0.37216 1 0 tcp 1040 ------- 0 1.0 3.0 33 52
r 0.37384 1 0 tcp 1040 ------- 0 1.0 3.0 31 49
+ 0.37384 0 3 tcp 1040 ------- 0 1.0 3.0 31 49
- 0.37384 0 3 tcp 1040 ------- 0 1.0 3.0 31 49
r 0.37552 0 3 tcp 1040 ------- 0 1.0 3.0 29 46
+ 0.37552 3 0 ack 40 ------- 0 3.0 1.0 29 76
- 0.37552 3 0 ack 40 ------- 0 3.0 1.0 29 76
r 0.37752 3 0 ack 40 ------- 0 3.0 1.0 28 74
+ 0.37752 0 1 ack 40 ------- 0 3.0 1.0 28 74
- 0.37752 0 1 ack 40 ------- 0 3.0 1.0 28 74
r 0.37952 0 1 ack 40 ------- 0 3.0 1.0 27 72
+ 0.37952 1 0 tcp 1040 ------- 0 1.0 3.0 47 77
- 0.38048 1 0 tcp 1040 ------- 0 1.0 3.0 34 53
r 0.38216 1 0 tcp 1040 ------- 0 1.0 3.0 32 50
+ 0.38216 0 3 tcp 1040 ------- 0 1.0 3.0 32 50
- 0.38216 0 3 tcp 1040 ------- 0 1.0 3.0 32 50
r 0.38384 0 3 tcp 1040 ------- 0 1.0 3.0 30 47
+ 0.38384 3 0 ack 40 ------- 0 3.0 1.0 30 78
- 0.38384 3 0 ack 40 ------- 0 3.0 1.0 30 78
r 0.38584 3 0 ack 40 ------- 0 3.0 1.0 29 76
+ 0.38584 0 1 ack 40 ------- 0 3.0 1.0 29 76
- 0.38584 0 1 ack 40 ------- 0 3.0 1.0 29 76
r 0.38784 0 1 ack 40 ------- 0 3.0 1.0 28 74
+ 0.38784 1 0 tcp 1040 ------- 0 1.0 3.0 48 79
- 0.3888 1 0 tcp 1040 ------- 0 1.0 3.0 35 55
r 0.39048 1 0 tcp 1040 ------- 0 1.0 3.0 33 52
+ 0.39048 0 3 tcp 1040 ------- 0 1.0 3.0 33 52
- 0.39048 0 3 tcp 1040 ------- 0 1.0 3.0 33 52
r 0.39216 0 3 tcp 1040 ------- 0 1.0 3.0 31 49
+ 0.39216 3 0 ack 40 ------- 0 3.0 1.0 31 80
- 0.39216 3 0 ack 40 ------- 0 3.0 1.0 31 80
r 0.39416 3 0 ack 40 ------- 0 3.0 1.0 30 78
+ 0.39416 0 1 ack 40 ------- 0 3.0 1.0 30 78
- 0.39416 0 1 ack 40 ------- 0 3.0 1.0 30 78
r 0.39616 0 1 ack 40 ------- 0 3.0 1.0 29 76
+ 0.39616 1 0 tcp 1040 ------- 0 1.0 3.0 49 81
- 0.39712 1 0 tcp 1040 ------- 0 1.0 3.0 36 56
r 0.3988 1 0 tcp 1040 ------- 0 1.0 3.0 34 53
+ 0.3988 0 3 tcp 1040 ------- 0 1.0 3.0 34 53
- 0.3988 0 3 tcp 1040 ------- 0 1.0 3.0 34 53
r 0.40048 0 3 tcp 1040 ------- 0 1.0 3.0 32 50
+ 0.40048 3 0 ack 40 ------- 0 3.0 1.0 32 82
- 0.40048 3 0 ack 40 ------- 0 3.0 1.0 32 82
r 0.40248 3 0 ack 40 ------- 0 3.0 1.0 31 80
+ 0.40248 0 1 ack 40 ------- 0 3.0 1.0 31 80
- 0.40248 0 1 ack 40 ------- 0 3.0 1.0 31 80
r 0.40448 0 1 ack 40 ------- 0 3.0 1.0 30 78
+ 0.40448 1 0 tcp 1040 ------- 0 1.0 3.0 50 83
- 0.40544 1 0 tcp 1040 ------- 0 1.0 3.0 37 58
r 0.40712 1 0 tcp 1040 ------- 0 1.0 3.0 35 55
+ 0.40712 0 3 tcp 1040 ------- 0 1.0 3.0 35 55
- 0.40712 0 3 tcp 1040 ------- 0 1.0 3.0 35 55
r 0.4088 0 3 tcp 1040 ------- 0 1.0 3.0 33 52
+ 0.4088 3 0 ack 40 ------- 0 3.0 1.0 33 84
- 0.4088 3 0 ack 40 ------- 0 3.0 1.0 33 84
r 0.4108 3 0 ack 40 ------- 0 3.0 1.0 32 82
+ 0.4108 0 1 ack 40 ------- 0 3.0 1.0 32 82
- 0.4108 0 1 ack 40 ------- 0 3.0 1.0 32 82
r 0.4128 0 1 ack 40 ------- 0 3.0 1.0 31 80
+ 0.4128 1 0 tcp 1040 ------- 0 1.0 3.0 51 85
- 0.41376 1 0 tcp 1040 ------- 0 1.0 3.0 38 59
r 0.41544 1 0 tcp 1040 ------- 0 1.0 3.0 36 56
+ 0.41544 0 3 tcp 1040 ------- 0 1.0 3.0 36 56
- 0.41544 0 3 tcp 1040 ------- 0 1.0 3.0 36 56
r 0.41712 0 3 tcp 1040 ------- 0 1.0 3.0 34 53
+ 0.41712 3 0 ack 40 ------- 0 3.0 1.0 34 86
- 0.41712 3 0 ack 40 ------- 0 3.0 1.0 34 86
r 0.41912 3 0 ack 40 ------- 0 3.0 1.0 33 84
+ 0.41912 0 1 ack 40 ------- 0 3.0 1.0 33 84
- 0.41912 0 1 ack 40 ------- 0 3.0 1.0 33 84
r 0.42112 0 1 ack 40 ------- 0 3.0 1.0 32 82
+ 0.42112 1 0 tcp 1040 ------- 0 1.0 3.0 52 87
- 0.42208 1 0 tcp 1040 ------- 0 1.0 3.0 39 61
r 0.42376 1 0 tcp 1040 ------- 0 1.0 3.0 37 58
+ 0.42376 0 3 tcp 1040 ------- 0 1.0 3.0 37 58
- 0.42376 0 3 tcp 1040 ------- 0 1.0 3.0 37 58
r 0.42544 0 3 tcp 1040 ------- 0 1.0 3.0 35 55
+ 0.42544 3 0 ack 40 ------- 0 3.0 1.0 35 88
- 0.42544 3 0 ack 40 ------- 0 3.0 1.0 35 88
r 0.42744 3 0 ack 40 ------- 0 3.0 1.0 34 86
+ 0.42744 0 1 ack 40 ------- 0 3.0 1.0 34 86
- 0.42744 0 1 ack 40 ------- 0 3.0 1.0 34 86
r 0.42944 0 1 ack 40 ------- 0 3.0 1.0 33 84
+ 0.42944 1 0 tcp 1040 ------- 0 1.0 3.0 53 89
- 0.4304 1 0 tcp 1040 ------- 0 1.0 3.0 40 63
r 0.43208 1 0 tcp 1040 ------- 0 1.0 3.0 38 59
+ 0.43208 0 3 tcp 1040 ------- 0 1.0 3.0 38 59
- 0.43208 0 3 tcp 1040 ------- 0 1.0 3.0 38 59
r 0.43376 0 3 tcp 1040 ------- 0 1.0 3.0 36 56
+ 0.43376 3 0 ack 40 ------- 0 3.0 1.0 36 90
- 0.43376 3 0 ack 40 ------- 0 3.0 1.0 36 90
r 0.43576 3 0 ack 40 ------- 0 3.0 1.0 35 88
+ 0.43576 0 1 ack 40 ------- 0 3.0 1.0 35 88
- 0.43576 0 1 ack 40 ------- 0 3.0 1.0 35 88
r 0.43776 0 1 ack 40 ------- 0 3.0 1.0 34 86
+ 0.43776 1 0 tcp 1040 ------- 0 1.0 3.0 54 91
- 0.43872 1 0 tcp 1040 ------- 0 1.0 3.0 41 65
r 0.4404 1 0 tcp 1040 ------- 0 1.0 3.0 39 61
+ 0.4404 0 3 tcp 1040 ------- 0 1.0 3.0 39 61
- 0.4404 0 3 tcp 1040 ------- 0 1.0 3.0 39 61
r 0.44208 0 3 tcp 1040 ------- 0 1.0 3.0 37 58
+ 0.44208 3 0 ack 40 ------- 0 3.0 1.0 37 92
- 0.44208 3 0 ack 40 ------- 0 3.0 1.0 37 92
r 0.44408 3 0 ack 40 ------- 0 3.0 1.0 36 90
+ 0.44408 0 1 ack 40 ------- 0 3.0 1.0 36 90
- 0.44408 0 1 ack 40 ------- 0 3.0 1.0 36 90
r 0.44608 0 1 ack 40 ------- 0 3.0 1.0 35 88
+ 0.44608 1 0 tcp 1040 ------- 0 1.0 3.0 55 93
- 0.44704 1 0 tcp 1040 ------- 0 1.0 3.0 42 67
r 0.44872 1 0 tcp 1040 ------- 0 1.0 3.0 40 63
+ 0.44872 0 3 tcp 1040 ------- 0 1.0 3.0 40 63
- 0.44872 0 3 tcp 1040 ------- 0 1.0 3.0 40 63
r 0.4504 0 3 tcp 1040 ------- 0 1.0 3.0 38 59
+ 0.4504 3 0 ack 40 ------- 0 3.0 1.0 38 94
- 0.4504 3 0 ack 40 ------- 0 3.0 1.0 38 94
r 0.4524 3 0 ack 40 ------- 0 3.0 1.0 37 92
+ 0.4524 0 1 ack 40 ------- 0 3.0 1.0 37 92
- 0.4524 0 1 ack 40 ------- 0 3.0 1.0 37 92
r 0.4544 0 1 ack 40 ------- 0 3.0 1.0 36 90
+ 0.4544 1 0 tcp 1040 ------- 0 1.0 3.0 56 95
- 0.45536 1 0 tcp 1040 ------- 0 1.0 3.0 43 69
r 0.45704 1 0 tcp 1040 ------- 0 1.0 3.0 41 65
+ 0.45704 0 3 tcp 1040 ------- 0 1.0 3.0 41 65
- 0.45704 0 3 tcp 1040 ------- 0 1.0 3.0 41 65
r 0.45872 0 3 tcp 1040 ------- 0 1.0 3.0 39 61
+ 0.45872 3 0 ack 40 ------- 0 3.0 1.0 39 96
- 0.45872 3 0 ack 40 ------- 0 3.0 1.0 39 96
r 0.46072 3 0 ack 40 ------- 0 3.0 1.0 38 94
+ 0.46072 0 1 ack 40 ------- 0 3.0 1.0 38 94
- 0.46072 0 1 ack 40 ------- 0 3.0 1.0 38 94
r 0.46272 0 1 ack 40 ------- 0 3.0 1.0 37 92
+ 0.46272 1 0 tcp 1040 ------- 0 1.0 3.0 57 97
- 0.46368 1 0 tcp 1040 ------- 0 1.0 3.0 44 71
r 0.46536 1 0 tcp 1040 ------- 0 1.0 3.0 42 67
+ 0.46536 0 3 tcp 1040 ------- 0 1.0 3.0 42 67
- 0.46536 0 3 tcp 1040 ------- 0 1.0 3.0 42 67
r 0.46704 0 3 tcp 1040 ------- 0 1.0 3.0 40 63
+ 0.46704 3 0 ack 40 ------- 0 3.0 1.0 40 98
- 0.46704 3 0 ack 40 ------- 0 3.0 1.0 40 98
r 0.46904 3 0 ack 40 ------- 0 3.0 1.0 39 96
+ 0.46904 0 1 ack 40 ------- 0 3.0 1.0 39 96
- 0.46904 0 1 ack 40 ------- 0 3.0 1.0 39 96
r 0.47104 0 1 ack 40 ------- 0 3.0 1.0 38 94
+ 0.47104 1 0 tcp 1040 ------- 0 1.0 3.0 58 99
- 0.472 1 0 tcp 1040 ------- 0 1.0 3.0 45 73
r 0.47368 1 0 tcp 1040 ------- 0 1.0 3.0 43 69
+ 0.47368 0 3 tcp 1040 ------- 0 1.0 3.0 43 69
- 0.47368 0 3 tcp 1040 ------- 0 1.0 3.0 43 69
r 0.47536 0 3 tcp 1040 ------- 0 1.0 3.0 41 65
+ 0.47536 3 0 ack 40 ------- 0 3.0 1.0 41 100
- 0.47536 3 0 ack 40 ------- 0 3.0 1.0 41 100
r 0.47736 3 0 ack 40 ------- 0 3.0 1.0 40 98
+ 0.47736 0 1 ack 40 ------- 0 3.0 1.0 40 98
- 0.47736 0 1 ack 40 ------- 0 3.0 1.0 40 98
r 0.47936 0 1 ack 40 ------- 0 3.0 1.0 39 96
+ 0.47936 1 0 tcp 1040 ------- 0 1.0 3.0 59 101
- 0.48032 1 0 tcp 1040 ------- 0 1.0 3.0 46 75
r 0.482 1 0 tcp 1040 ------- 0 1.0 3.0 44 71
+ 0.482 0 3 tcp 1040 ------- 0 1.0 3.0 44 71
- 0.482 0 3 tcp 1040 ------- 0 1.0 3.0 44 71
r 0.48368 0 3 tcp 1040 ------- 0 1.0 3.0 42 67
+ 0.48368 3 0 ack 40 ------- 0 3.0 1.0 42 102
- 0.48368 3 0 ack 40 ------- 0 3.0 1.0 42 102
r 0.48568 3 0 ack 40 ------- 0 3.0 1.0 41 100
+ 0.48568 0 1 ack 40 ------- 0 3.0 1.0 41 100
- 0.48568 0 1 ack 40 ------- 0 3.0 1.0 41 100
r 0.48768 0 1 ack 40 ------- 0 3.0 1.0 40 98
+ 0.48768 1 0 tcp 1040 ------- 0 1.0 3.0 60 103
- 0.48864 1 0 tcp 1040 ------- 0 1.0 3.0 47 77
r 0.49032 1 0 tcp 1040 ------- 0 1.0 3.0 45 73
+ 0.49032 0 3 tcp 1040 ------- 0 1.0 3.0 45 73
- 0.49032 0 3 tcp 1040 ------- 0 1.0 3.0 45 73
r 0.492 0 3 tcp 1040 ------- 0 1.0 3.0 43 69
+ 0.492 3 0 ack 40 ------- 0 3.0 1.0 43 104
- 0.492 3 0 ack 40 ------- 0 3.0 1.0 43 104
r 0.494 3 0 ack 40 ------- 0 3.0 1.0 42 102
+ 0.494 0 1 ack 40 ------- 0 3.0 1.0 42 102
- 0.494 0 1 ack 40 ------- 0 3.0 1.0 42 102
r 0.496 0 1 ack 40 ------- 0 3.0 1.0 41 100
+ 0.496 1 0 tcp 1040 ------- 0 1.0 3.0 61 105
- 0.49696 1 0 tcp 1040 ------- 0 1.0 3.0 48 79
r 0.49864 1 0 tcp 1040 ------- 0 1.0 3.0 46 75
+ 0.49864 0 3 tcp 1040 ------- 0 1.0 3.0 46 75
- 0.49864 0 3 tcp 1040 ------- 0 1.0 3.0 46 75
r 0.50032 0 3 tcp 1040 ------- 0 1.0 3.0 44 71
+ 0.50032 3 0 ack 40 ------- 0 3.0 1.0 44 106
- 0.50032 3 0 ack 40 ------- 0 3.0 1.0 44 106
r 0.50232 3 0 ack 40 ------- 0 3.0 1.0 43 104
+ 0.50232 0 1 ack 40 ------- 0 3.0 1.0 43 104
- 0.50232 0 1 ack 40 ------- 0 3.0 1.0 43 104
r 0.50432 0 1 ack 40 ------- 0 3.0 1.0 42 102
+ 0.50432 1 0 tcp 1040 ------- 0 1.0 3.0 62 107
- 0.50528 1 0 tcp 1040 ------- 0 1.0 3.0 49 81
r 0.50696 1 0 tcp 1040 ------- 0 1.0 3.0 47 77
+ 0.50696 0 3 tcp 1040 ------- 0 1.0 3.0 47 77
- 0.50696 0 3 tcp 1040 ------- 0 1.0 3.0 47 77
r 0.50864 0 3 tcp 1040 ------- 0 1.0 3.0 45 73
+ 0.50864 3 0 ack 40 ------- 0 3.0 1.0 45 108
- 0.50864 3 0 ack 40 ------- 0 3.0 1.0 45 108
r 0.51064 3 0 ack 40 ------- 0 3.0 1.0 44 106
+ 0.51064 0 1 ack 40 ------- 0 3.0 1.0 44 106
- 0.51064 0 1 ack 40 ------- 0 3.0 1.0 44 106
r 0.51264 0 1 ack 40 ------- 0 3.0 1.0 43 104
+ 0.51264 1 0 tcp 1040 ------- 0 1.0 3.0 63 109
- 0.5136 1 0 tcp 1040 ------- 0 1.0 3.0 50 83
r 0.51528 1 0 tcp 1040 ------- 0 1.0 3.0 48 79
+ 0.51528 0 3 tcp 1040 ------- 0 1.0 3.0 48 79
- 0.51528 0 3 tcp 1040 ------- 0 1.0 3.0 48 79
r 0.51696 0 3 tcp 1040 ------- 0 1.0 3.0 46 75
+ 0.51696 3 0 ack 40 ------- 0 3.0 1.0 46 110
- 0.51696 3 0 ack 40 ------- 0 3.0 1.0 46 110
r 0.51896 3 0 ack 40 ------- 0 3.0 1.0 45 108
+ 0.51896 0 1 ack 40 ------- 0 3.0 1.0 45 108
- 0.51896 0 1 ack 40 ------- 0 3.0 1.0 45 108
r 0.52096 0 1 ack 40 ------- 0 3.0 1.0 44 106
+ 0.52096 1 0 tcp 1040 ------- 0 1.0 3.0 64 111
- 0.52192 1 0 tcp 1040 ------- 0 1.0 3.0 51 85
r 0.5236 1 0 tcp 1040 ------- 0 1.0 3.0 49 81
+ 0.5236 0 3 tcp 1040 ------- 0 1.0 3.0 49 81
- 0.5236 0 3 tcp 1040 ------- 0 1.0 3.0 49 81
r 0.52528 0 3 tcp 1040 ------- 0 1.0 3.0 47 77
+ 0.52528 3 0 ack 40 ------- 0 3.0 1.0 47 112
- 0.52528 3 0 ack 40 ------- 0 3.0 1.0 47 112
r 0.52728 3 0 ack 40 ------- 0 3.0 1.0 46 110
+ 0.52728 0 1 ack 40 ------- 0 3.0 1.0 46 110
- 0.52728 0 1 ack 40 ------- 0 3.0 1.0 46 110
r 0.52928 0 1 ack 40 ------- 0 3.0 1.0 45 108
+ 0.52928 1 0 tcp 1040 ------- 0 1.0 3.0 65 113
- 0.53024 1 0 tcp 1040 ------- 0 1.0 3.0 52 87
r 0.53192 1 0 tcp 1040 ------- 0 1.0 3.0 50 83
+ 0.53192 0 3 tcp 1040 ------- 0 1.0 3.0 50 83
- 0.53192 0 3 tcp 1040 ------- 0 1.0 3.0 50 83
r 0.5336 0 3 tcp 1040 ------- 0 1.0 3.0 48 79
+ 0.5336 3 0 ack 40 ------- 0 3.0 1.0 48 114
- 0.5336 3 0 ack 40 ------- 0 3.0 1.0 48 114
r 0.5356 3 0 ack 40 ------- 0 3.0 1.0 47 112
+ 0.5356 0 1 ack 40 ------- 0 3.0 1.0 47 112
- 0.5356 0 1 ack 40 ------- 0 3.0 1.0 47 112
r 0.5376 0 1 ack 40 ------- 0 3.0 1.0 46 110
+ 0.5376 1 0 tcp 1040 ------- 0 1.0 3.0 66 115
- 0.53856 1 0 tcp 1040 ------- 0 1.0 3.0 53 89
r 0.54024 1 0 tcp 1040 ------- 0 1.0 3.0 51 85
+ 0.54024 0 3 tcp 1040 ------- 0 1.0 3.0 51 85
- 0.54024 0 3 tcp 1040 ------- 0 1.0 3.0 51 85
r 0.54192 0 3 tcp 1040 ------- 0 1.0 3.0 49 81
+ 0.54192 3 0 ack 40 ------- 0 3.0 1.0 49 116
- 0.54192 3 0 ack 40 ------- 0 3.0 1.0 49 116
r 0.54392 3 0 ack 40 ------- 0 3.0 1.0 48 114
+ 0.54392 0 1 ack 40 ------- 0 3.0 1.0 48 114
- 0.54392 0 1 ack 40 ------- 0 3.0 1.0 48 114
r 0.54592 0 1 ack 40 ------- 0 3.0 1.0 47 112
+ 0.54592 1 0 tcp 1040 ------- 0 1.0 3.0 67 117
- 0.54688 1 0 tcp 1040 ------- 0 1.0 3.0 54 91
r 0.54856 1 0 tcp 1040 ------- 0 1.0 3.0 52 87
+ 0.54856 0 3 tcp 1040 ------- 0 1.0 3.0 52 87
- 0.54856 0 3 tcp 1040 ------- 0 1.0 3.0 52 87
r 0.55024 0 3 tcp 1040 ------- 0 1.0 3.0 50 83
+ 0.55024 3 0 ack 40 ------- 0 3.0 1.0 50 118
- 0.55024 3 0 ack 40 ------- 0 3.0 1.0 50 118
r 0.55224 3 0 ack 40 ------- 0 3.0 1.0 49 116
+ 0.55224 0 1 ack 40 ------- 0 3.0 1.0 49 116
- 0.55224 0 1 ack 40 ------- 0 3.0 1.0 49 116
r 0.55424 0 1 ack 40 ------- 0 3.0 1.0 48 114
+ 0.55424 1 0 tcp 1040 ------- 0 1.0 3.0 68 119
- 0.5552 1 0 tcp 1040 ------- 0 1.0 3.0 55 93
r 0.55688 1 0 tcp 1040 ------- 0 1.0 3.0 53 89
+ 0.55688 0 3 tcp 1040 ------- 0 1.0 3.0 53 89
- 0.55688 0 3 tcp 1040 ------- 0 1.0 3.0 53 89
r 0.55856 0 3 tcp 1040 ------- 0 1.0 3.0 51 85
+ 0.55856 3 0 ack 40 ------- 0 3.0 1.0 51 120
- 0.55856 3 0 ack 40 ------- 0 3.0 1.0 51 120
r 0.56056 3 0 ack 40 ------- 0 3.0 1.0 50 118
+ 0.56056 0 1 ack 40 ------- 0 3.0 1.0 50 118
- 0.56056 0 1 ack 40 ------- 0 3.0 1.0 50 118
r 0.56256 0 1 ack 40 ------- 0 3.0 1.0 49 116
+ 0.56256 1 0 tcp 1040 ------- 0 1.0 3.0 69 121
- 0.56352 1 0 tcp 1040 ------- 0 1.0 3.0 56 95
r 0.5652 1 0 tcp 1040 ------- 0 1.0 3.0 54 91
+ 0.5652 0 3 tcp 1040 ------- 0 1.0 3.0 54 91
- 0.5652 0 3 tcp 1040 ------- 0 1.0 3.0 54 91
r 0.56688 0 3 tcp 1040 ------- 0 1.0 3.0 52 87
+ 0.56688 3 0 ack 40 ------- 0 3.0 1.0 52 122
- 0.56688 3 0 ack 40 ------- 0 3.0 1.0 52 122
r 0.56888 3 0 ack 40 ------- 0 3.0 1.0 51 120
+ 0.56888 0 1 ack 40 ------- 0 3.0 1.0 51 120
- 0.56888 0 1 ack 40 ------- 0 3.0 1.0 51 120